# vtk DataFile Version 3.0 
vtk output 
ASCII 
DATASET POLYDATA 
POINTS  9 float 
10.852671 10.002772 5.401135
-0.164648 10.028414 -12.242561
-10.258905 10.015912 6.675616
10.263477 26.095958 -6.464400
0.615625 25.868903 12.232033
-10.787636 25.693398 -5.773004
-0.746370 41.784808 -12.210709
10.735067 41.940839 5.856688
-10.262232 41.598965 6.364331
POINT_DATA 9
SCALARS diameters float 
LOOKUP_TABLE myTable 
20.000000
20.000000
20.000000
20.000000
20.000000
20.000000
20.000000
20.000000
20.000000



